Title: * C:\Users\DGilliland\Documents\GitHub\lb-boards\CCLOAD-01\SpiceSim\CC-Load-01.asc
Date: Thu Jan 28 15:34:29 2016
Plotname: Transient Analysis
Flags: real forward
No. Variables: 14
No. Points:            0
Offset:   0.0000000000000000e+000
Command: Linear Technology Corporation LTspice IV
Backannotation: u2 1 2 3 4 5
Variables:
